 Gaussian 16, Revision A.03,
 Gaussian 16:  EM64L-G16RevA.03 25-Dec-2016

 ------------------------------------------------
 #P rhf nosymm output=matrix int=noraf scf=conven
 ------------------------------------------------

 ----------------
 Benzene_Molecule
 ----------------
 Symbolic Z-matrix:
 Charge =  0 Multiplicity = 1

                          Input orientation:
 ---------------------------------------------------------------------
 Center     Atomic      Atomic             Coordinates (Angstroms)
 Number     Number       Type             X           Y           Z
 ---------------------------------------------------------------------
      1          6           0        0.000000    0.000000    0.000000
      2          6           0        0.000000    0.000000    1.395160
      3          6           0        1.207751    0.000000    2.092698
      4          6           0        2.416260   -0.001199    1.395044
      5          6           0        2.416182   -0.001678    0.000219
      6          6           0        1.207976   -0.000682   -0.697382
      7          1           0       -0.952317    0.000450   -0.549759
      8          1           0       -0.952513    0.001315    1.944668
      9          1           0        1.207831    0.000634    3.192378
     10          1           0        3.368403   -0.001258    1.945244
     11          1           0        3.368463   -0.002631   -0.549903
     12          1           0        1.208159   -0.000862   -1.796986
 ---------------------------------------------------------------------

 SCF Done:  E(RHF) =  -227.889409905     A.U. after   10 cycles

 Alpha  occ. eigenvalues --  -11.02930 -11.02930 -11.02927 -11.02894 -11.02894
 Alpha  occ. eigenvalues --  -11.02880  -1.08912  -0.95262  -0.95257  -0.76318
 Alpha  occ. eigenvalues --   -0.76312  -0.65724  -0.58760  -0.55243  -0.53041
 Alpha  occ. eigenvalues --   -0.53039  -0.45572  -0.42996  -0.42987  -0.27941
 Alpha  occ. eigenvalues --   -0.27934
 Alpha virt. eigenvalues --    0.26925   0.26934   0.50428   0.56473   0.63647
 Alpha virt. eigenvalues --    0.63660   0.70674   0.72600   0.72607   0.87495
 Alpha virt. eigenvalues --    0.87504   0.89400   0.89417   1.08778   1.14437

 Mulliken charges:
               1
     1  C   -0.060397
     2  C   -0.060416
     3  C   -0.060381
     4  C   -0.060370
     5  C   -0.060389
     6  C   -0.060408
     7  H    0.060403
     8  H    0.060388
     9  H    0.060396
    10  H    0.060394
    11  H    0.060378
    12  H    0.060403
 Sum of Mulliken charges =   0.00000

 Dipole moment (field-independent basis, Debye):
    X=              0.0001    Y=              0.0004    Z=              0.0001  Tot=              0.0004
 Quadrupole moment (field-independent basis, Debye-Ang):
   XX=            -31.1584   YY=            -35.1303   ZZ=            -31.1574
   XY=             -0.0024   XZ=              0.0006   YZ=              0.0022

 Normal termination of Gaussian 16 at Sat Dec  4 17:25:38 2021.
