 Gaussian 16, Revision A.03,
 Gaussian 16:  EM64L-G16RevA.03 25-Dec-2016

 ------------------------------------------------
 #P rhf nosymm output=matrix int=noraf scf=conven
 ------------------------------------------------

 ------------
 BH3_Molecule
 ------------
 Symbolic Z-matrix:
 Charge =  0 Multiplicity = 1

                          Input orientation:
 ---------------------------------------------------------------------
 Center     Atomic      Atomic             Coordinates (Angstroms)
 Number     Number       Type             X           Y           Z
 ---------------------------------------------------------------------
      1          5           0        0.000000    0.000000    0.000000
      2          1           0        0.000000    0.000000    1.180000
      3          1           0        1.021910    0.000000   -0.590000
      4          1           0       -1.021910    0.000000   -0.590000
 ---------------------------------------------------------------------

 SCF Done:  E(RHF) =  -26.0699327855     A.U. after    5 cycles

 Alpha  occ. eigenvalues --   -7.41554  -0.66913  -0.46537  -0.46537
 Alpha virt. eigenvalues --    0.23898   0.70118   0.76002   0.76002

 Mulliken charges:
               1
     1  B    0.186998
     2  H   -0.062333
     3  H   -0.062333
     4  H   -0.062333
 Sum of Mulliken charges =   0.00000

 Dipole moment (field-independent basis, Debye):
    X=             -0.0000    Y=              0.0000    Z=              0.0000  Tot=              0.0000
 Quadrupole moment (field-independent basis, Debye-Ang):
   XX=             -8.4523   YY=             -6.3507   ZZ=             -8.4523
   XY=              0.0000   XZ=              0.0000   YZ=              0.0000

 Normal termination of Gaussian 16 at Sat Dec  4 02:26:33 2021.
