 Gaussian 16, Revision A.03,
 Gaussian 16:  EM64L-G16RevA.03 25-Dec-2016

 ------------------------------------------------
 #P rhf nosymm output=matrix int=noraf scf=conven
 ------------------------------------------------

 ------------
 ch4_molecule
 ------------
 Symbolic Z-matrix:
 Charge =  0 Multiplicity = 1

                          Input orientation:
 ---------------------------------------------------------------------
 Center     Atomic      Atomic             Coordinates (Angstroms)
 Number     Number       Type             X           Y           Z
 ---------------------------------------------------------------------
      1          6           0        0.000000    0.000000    0.000000
      2          1           0        0.000000    0.000000    1.070000
      3          1           0        1.008806    0.000000   -0.356667
      4          1           0       -0.504403   -0.873651   -0.356667
      5          1           0       -0.504403    0.873651   -0.356667
 ---------------------------------------------------------------------

 SCF Done:  E(RHF) =  -39.7262784182     A.U. after    6 cycles

 Alpha  occ. eigenvalues --  -11.02864  -0.91891  -0.52570  -0.52570  -0.52570
 Alpha virt. eigenvalues --    0.73092   0.73092   0.73092   0.78108

 Mulliken charges:
               1
     1  C   -0.277469
     2  H    0.069367
     3  H    0.069367
     4  H    0.069367
     5  H    0.069367
 Sum of Mulliken charges =  -0.00000

 Dipole moment (field-independent basis, Debye):
    X=             -0.0000    Y=              0.0000    Z=              0.0000  Tot=              0.0000
 Quadrupole moment (field-independent basis, Debye-Ang):
   XX=             -7.8391   YY=             -7.8391   ZZ=             -7.8391
   XY=              0.0000   XZ=              0.0000   YZ=             -0.0000

 Normal termination of Gaussian 16 at Sat Dec  4 17:18:40 2021.
