 Gaussian 16, Revision A.03,
 Gaussian 16:  EM64L-G16RevA.03 25-Dec-2016

 ------------------------------------------------
 #P rhf nosymm output=matrix int=noraf scf=conven
 ------------------------------------------------

 -----------
 CO_Molecule
 -----------
 Symbolic Z-matrix:
 Charge =  0 Multiplicity = 1

                          Input orientation:
 ---------------------------------------------------------------------
 Center     Atomic      Atomic             Coordinates (Angstroms)
 Number     Number       Type             X           Y           Z
 ---------------------------------------------------------------------
      1          6           0        0.000000    0.000000    0.000000
      2          8           0        0.000000    0.000000    1.115400
 ---------------------------------------------------------------------

 SCF Done:  E(RHF) =  -111.222740226     A.U. after    8 cycles

 Alpha  occ. eigenvalues --  -20.43076 -11.09450  -1.47101  -0.70146  -0.55955
 Alpha  occ. eigenvalues --   -0.55955  -0.44740
 Alpha virt. eigenvalues --    0.31893   0.31893   1.06353

 Mulliken charges:
               1
     1  C    0.202357
     2  O   -0.202357
 Sum of Mulliken charges =  -0.00000

 Dipole moment (field-independent basis, Debye):
    X=              0.0000    Y=             -0.0000    Z=              0.1998  Tot=              0.1998
 Quadrupole moment (field-independent basis, Debye-Ang):
   XX=             -8.6939   YY=             -8.6939   ZZ=            -11.4751
   XY=              0.0000   XZ=              0.0000   YZ=              0.0000

 Normal termination of Gaussian 16 at Sat Dec  4 17:05:23 2021.
