 Gaussian 16, Revision A.03,
 Gaussian 16:  EM64L-G16RevA.03 25-Dec-2016

 ------------------------------------------------
 #P rhf nosymm output=matrix int=noraf scf=conven
 ------------------------------------------------

 -----------------
 Hydrogen_Molecule
 -----------------
 Symbolic Z-matrix:
 Charge =  0 Multiplicity = 1

                          Input orientation:
 ---------------------------------------------------------------------
 Center     Atomic      Atomic             Coordinates (Angstroms)
 Number     Number       Type             X           Y           Z
 ---------------------------------------------------------------------
      1          1           0        0.000000    0.000000    0.000000
      2          1           0        0.000000    0.000000    1.000000
      3          1           0        0.000000    0.000000    2.000000
      4          1           0        0.000000    0.000000    3.000000
      5          1           0        0.000000    0.000000    4.000000
      6          1           0        0.000000    0.000000    5.000000
      7          1           0        0.000000    0.000000    6.000000
      8          1           0        0.000000    0.000000    7.000000
      9          1           0        0.000000    0.000000    8.000000
     10          1           0        0.000000    0.000000    9.000000
     11          1           0        0.000000    0.000000   10.000000
     12          1           0        0.000000    0.000000   11.000000
 ---------------------------------------------------------------------

 SCF Done:  E(RHF) =  -6.25421749110     A.U. after    9 cycles

 Alpha  occ. eigenvalues --   -0.69625  -0.65826  -0.59554  -0.50650  -0.38898
 Alpha  occ. eigenvalues --   -0.24491
 Alpha virt. eigenvalues --    0.13210   0.33395   0.56032   0.79749   1.02052
 Alpha virt. eigenvalues --    1.18636

 Mulliken charges:
               1
     1  H   -0.018847
     2  H    0.010074
     3  H   -0.002854
     4  H    0.007329
     5  H    0.000849
     6  H    0.003448
     7  H    0.003448
     8  H    0.000849
     9  H    0.007329
    10  H   -0.002854
    11  H    0.010074
    12  H   -0.018847
 Sum of Mulliken charges =  -0.00000

 Dipole moment (field-independent basis, Debye):
    X=              0.0000    Y=              0.0000    Z=             -0.0000  Tot=              0.0000
 Quadrupole moment (field-independent basis, Debye-Ang):
   XX=            -11.0668   YY=            -11.0668   ZZ=            -12.7305
   XY=              0.0000   XZ=              0.0000   YZ=              0.0000

 Normal termination of Gaussian 16 at Mon Dec  6 11:53:17 2021.
