 Gaussian 16, Revision A.03,
 Gaussian 16:  EM64L-G16RevA.03 25-Dec-2016

 ------------------------------------------------
 #P rhf nosymm output=matrix int=noraf scf=conven
 ------------------------------------------------

 -----------------
 Hydrogen_Molecule
 -----------------
 Symbolic Z-matrix:
 Charge =  0 Multiplicity = 1

                          Input orientation:
 ---------------------------------------------------------------------
 Center     Atomic      Atomic             Coordinates (Angstroms)
 Number     Number       Type             X           Y           Z
 ---------------------------------------------------------------------
      1          1           0        0.000000    0.000000    0.000000
      2          1           0        0.000000    0.000000    1.000000
      3          1           0        0.000000    0.000000    2.000000
      4          1           0        0.000000    0.000000    3.000000
      5          1           0        0.000000    0.000000    4.000000
      6          1           0        0.000000    0.000000    5.000000
      7          1           0        0.000000    0.000000    6.000000
      8          1           0        0.000000    0.000000    7.000000
      9          1           0        0.000000    0.000000    8.000000
     10          1           0        0.000000    0.000000    9.000000
     11          1           0        0.000000    0.000000   10.000000
     12          1           0        0.000000    0.000000   11.000000
     13          1           0        0.000000    0.000000   12.000000
     14          1           0        0.000000    0.000000   13.000000
     15          1           0        0.000000    0.000000   14.000000
     16          1           0        0.000000    0.000000   15.000000
     17          1           0        0.000000    0.000000   16.000000
     18          1           0        0.000000    0.000000   17.000000
     19          1           0        0.000000    0.000000   18.000000
     20          1           0        0.000000    0.000000   19.000000
     21          1           0        0.000000    0.000000   20.000000
     22          1           0        0.000000    0.000000   21.000000
     23          1           0        0.000000    0.000000   22.000000
     24          1           0        0.000000    0.000000   23.000000
     25          1           0        0.000000    0.000000   24.000000
     26          1           0        0.000000    0.000000   25.000000
     27          1           0        0.000000    0.000000   26.000000
     28          1           0        0.000000    0.000000   27.000000
     29          1           0        0.000000    0.000000   28.000000
     30          1           0        0.000000    0.000000   29.000000
     31          1           0        0.000000    0.000000   30.000000
     32          1           0        0.000000    0.000000   31.000000
     33          1           0        0.000000    0.000000   32.000000
     34          1           0        0.000000    0.000000   33.000000
     35          1           0        0.000000    0.000000   34.000000
     36          1           0        0.000000    0.000000   35.000000
     37          1           0        0.000000    0.000000   36.000000
     38          1           0        0.000000    0.000000   37.000000
     39          1           0        0.000000    0.000000   38.000000
     40          1           0        0.000000    0.000000   39.000000
     41          1           0        0.000000    0.000000   40.000000
     42          1           0        0.000000    0.000000   41.000000
     43          1           0        0.000000    0.000000   42.000000
     44          1           0        0.000000    0.000000   43.000000
     45          1           0        0.000000    0.000000   44.000000
     46          1           0        0.000000    0.000000   45.000000
     47          1           0        0.000000    0.000000   46.000000
     48          1           0        0.000000    0.000000   47.000000
     49          1           0        0.000000    0.000000   48.000000
     50          1           0        0.000000    0.000000   49.000000
     51          1           0        0.000000    0.000000   50.000000
     52          1           0        0.000000    0.000000   51.000000
     53          1           0        0.000000    0.000000   52.000000
     54          1           0        0.000000    0.000000   53.000000
     55          1           0        0.000000    0.000000   54.000000
     56          1           0        0.000000    0.000000   55.000000
     57          1           0        0.000000    0.000000   56.000000
     58          1           0        0.000000    0.000000   57.000000
     59          1           0        0.000000    0.000000   58.000000
     60          1           0        0.000000    0.000000   59.000000
     61          1           0        0.000000    0.000000   60.000000
     62          1           0        0.000000    0.000000   61.000000
 ---------------------------------------------------------------------

 SCF Done:  E(RHF) =  -32.2739275997     A.U. after   13 cycles

 Alpha  occ. eigenvalues --   -0.70506  -0.70364  -0.70110  -0.69753  -0.69294
 Alpha  occ. eigenvalues --   -0.68732  -0.68067  -0.67296  -0.66420  -0.65436
 Alpha  occ. eigenvalues --   -0.64341  -0.63134  -0.61812  -0.60371  -0.58809
 Alpha  occ. eigenvalues --   -0.57121  -0.55304  -0.53353  -0.51262  -0.49027
 Alpha  occ. eigenvalues --   -0.46641  -0.44099  -0.41393  -0.38518  -0.35467
 Alpha  occ. eigenvalues --   -0.32238  -0.28834  -0.25274  -0.21617  -0.18030
 Alpha  occ. eigenvalues --   -0.14983
 Alpha virt. eigenvalues --    0.03877   0.07145   0.11238   0.15661   0.20236
 Alpha virt. eigenvalues --    0.24900   0.29627   0.34408   0.39239   0.44114
 Alpha virt. eigenvalues --    0.49032   0.53983   0.58961   0.63954   0.68945

 Mulliken charges:
               1
     1  H   -0.022720
     2  H    0.010933
     3  H   -0.006807
     4  H    0.008707
     5  H   -0.004002
     6  H    0.005560
     7  H   -0.002909
     8  H    0.004149
     9  H   -0.002294
    10  H    0.003317
    11  H   -0.001872
    12  H    0.002743
    13  H   -0.001547
    14  H    0.002306
    15  H   -0.001279
    16  H    0.001953
    17  H   -0.001046
    18  H    0.001655
    19  H   -0.000836
    20  H    0.001395
    21  H   -0.000643
    22  H    0.001163
    23  H   -0.000461
    24  H    0.000951
    25  H   -0.000287
    26  H    0.000754
    27  H   -0.000117
    28  H    0.000569
    29  H    0.000051
    30  H    0.000392
    31  H    0.000220
    32  H    0.000220
    33  H    0.000392
    34  H    0.000051
    35  H    0.000569
    36  H   -0.000117
    37  H    0.000754
    38  H   -0.000287
    39  H    0.000951
    40  H   -0.000461
    41  H    0.001163
    42  H   -0.000643
    43  H    0.001395
    44  H   -0.000836
    45  H    0.001655
    46  H   -0.001046
    47  H    0.001953
    48  H   -0.001279
    49  H    0.002306
    50  H   -0.001547
    51  H    0.002743
    52  H   -0.001872
    53  H    0.003317
    54  H   -0.002294
    55  H    0.004149
    56  H   -0.002909
    57  H    0.005560
    58  H   -0.004002
    59  H    0.008707
    60  H   -0.006807
    61  H    0.010933
    62  H   -0.022720
 Sum of Mulliken charges =  -0.00000

 Dipole moment (field-independent basis, Debye):
    X=              0.0000    Y=              0.0000    Z=              0.0000  Tot=              0.0000
 Quadrupole moment (field-independent basis, Debye-Ang):
   XX=            -57.0479   YY=            -57.0479   ZZ=           -127.3323
   XY=              0.0000   XZ=              0.0000   YZ=              0.0000

 Normal termination of Gaussian 16 at Fri Dec  3 22:35:41 2021.
