 Gaussian 16, Revision A.03,
 Gaussian 16:  EM64L-G16RevA.03 25-Dec-2016

 ------------------------------------------------
 #P rhf nosymm output=matrix int=noraf scf=conven
 ------------------------------------------------

 -----------------
 Hydrogen_Molecule
 -----------------
 Symbolic Z-matrix:
 Charge =  0 Multiplicity = 1

                          Input orientation:
 ---------------------------------------------------------------------
 Center     Atomic      Atomic             Coordinates (Angstroms)
 Number     Number       Type             X           Y           Z
 ---------------------------------------------------------------------
      1          1           0        0.000000    0.000000    0.000000
      2          1           0        0.000000    0.000000    1.000000
      3          1           0        0.000000    0.000000    2.000000
      4          1           0        0.000000    0.000000    3.000000
      5          1           0        0.000000    0.000000    4.000000
      6          1           0        0.000000    0.000000    5.000000
      7          1           0        0.000000    0.000000    6.000000
      8          1           0        0.000000    0.000000    7.000000
      9          1           0        0.000000    0.000000    8.000000
     10          1           0        0.000000    0.000000    9.000000
     11          1           0        0.000000    0.000000   10.000000
     12          1           0        0.000000    0.000000   11.000000
     13          1           0        0.000000    0.000000   12.000000
     14          1           0        0.000000    0.000000   13.000000
     15          1           0        0.000000    0.000000   14.000000
     16          1           0        0.000000    0.000000   15.000000
     17          1           0        0.000000    0.000000   16.000000
     18          1           0        0.000000    0.000000   17.000000
     19          1           0        0.000000    0.000000   18.000000
     20          1           0        0.000000    0.000000   19.000000
 ---------------------------------------------------------------------

 SCF Done:  E(RHF) =  -10.4165379948     A.U. after   10 cycles

 Alpha  occ. eigenvalues --   -0.70289  -0.68852  -0.66482  -0.63156  -0.58826
 Alpha  occ. eigenvalues --   -0.53426  -0.46872  -0.39072  -0.29994  -0.20113
 Alpha virt. eigenvalues --    0.08745   0.20912   0.34415   0.48627   0.63317
 Alpha virt. eigenvalues --    0.78127   0.92447   1.05382   1.15828   1.22669

 Mulliken charges:
               1
     1  H   -0.020949
     2  H    0.010500
     3  H   -0.005021
     4  H    0.008023
     5  H   -0.001906
     6  H    0.004594
     7  H   -0.000435
     8  H    0.002872
     9  H    0.000646
    10  H    0.001677
    11  H    0.001677
    12  H    0.000646
    13  H    0.002872
    14  H   -0.000435
    15  H    0.004594
    16  H   -0.001906
    17  H    0.008023
    18  H   -0.005021
    19  H    0.010500
    20  H   -0.020949
 Sum of Mulliken charges =  -0.00000

 Dipole moment (field-independent basis, Debye):
    X=              0.0000    Y=              0.0000    Z=              0.0000  Tot=              0.0000
 Quadrupole moment (field-independent basis, Debye-Ang):
   XX=            -18.4225   YY=            -18.4225   ZZ=            -25.6568
   XY=              0.0000   XZ=              0.0000   YZ=              0.0000

 Normal termination of Gaussian 16 at Mon Dec  6 11:54:45 2021.
