 Gaussian 16, Revision A.03,
 Gaussian 16:  EM64L-G16RevA.03 25-Dec-2016

 ------------------------------------------------
 #P rhf nosymm output=matrix int=noraf scf=conven
 ------------------------------------------------

 -----------------
 Hydrogen_Molecule
 -----------------
 Symbolic Z-matrix:
 Charge =  0 Multiplicity = 1

                          Input orientation:
 ---------------------------------------------------------------------
 Center     Atomic      Atomic             Coordinates (Angstroms)
 Number     Number       Type             X           Y           Z
 ---------------------------------------------------------------------
      1          1           0        0.000000    0.000000    0.000000
      2          1           0        0.000000    0.000000    1.000000
      3          1           0        0.000000    0.000000    2.000000
      4          1           0        0.000000    0.000000    3.000000
      5          1           0        0.000000    0.000000    4.000000
      6          1           0        0.000000    0.000000    5.000000
      7          1           0        0.000000    0.000000    6.000000
      8          1           0        0.000000    0.000000    7.000000
      9          1           0        0.000000    0.000000    8.000000
     10          1           0        0.000000    0.000000    9.000000
     11          1           0        0.000000    0.000000   10.000000
     12          1           0        0.000000    0.000000   11.000000
     13          1           0        0.000000    0.000000   12.000000
     14          1           0        0.000000    0.000000   13.000000
     15          1           0        0.000000    0.000000   14.000000
     16          1           0        0.000000    0.000000   15.000000
     17          1           0        0.000000    0.000000   16.000000
     18          1           0        0.000000    0.000000   17.000000
     19          1           0        0.000000    0.000000   18.000000
     20          1           0        0.000000    0.000000   19.000000
     21          1           0        0.000000    0.000000   20.000000
     22          1           0        0.000000    0.000000   21.000000
     23          1           0        0.000000    0.000000   22.000000
     24          1           0        0.000000    0.000000   23.000000
 ---------------------------------------------------------------------

 SCF Done:  E(RHF) =  -12.4980700305     A.U. after   11 cycles

 Alpha  occ. eigenvalues --   -0.70390  -0.69383  -0.67719  -0.65390  -0.62371
 Alpha  occ. eigenvalues --   -0.58630  -0.54121  -0.48791  -0.42575  -0.35419
 Alpha  occ. eigenvalues --   -0.27346  -0.18886
 Alpha virt. eigenvalues --    0.07543   0.17620   0.28858   0.40638   0.52815
 Alpha virt. eigenvalues --    0.65249   0.77707   0.89825   1.01096   1.10893
 Alpha virt. eigenvalues --    1.18542   1.23431

 Mulliken charges:
               1
     1  H   -0.021448
     2  H    0.010614
     3  H   -0.005524
     4  H    0.008201
     5  H   -0.002503
     6  H    0.004850
     7  H   -0.001155
     8  H    0.003222
     9  H   -0.000242
    10  H    0.002149
    11  H    0.000535
    12  H    0.001301
    13  H    0.001301
    14  H    0.000535
    15  H    0.002149
    16  H   -0.000242
    17  H    0.003222
    18  H   -0.001155
    19  H    0.004850
    20  H   -0.002503
    21  H    0.008201
    22  H   -0.005524
    23  H    0.010614
    24  H   -0.021448
 Sum of Mulliken charges =   0.00000

 Dipole moment (field-independent basis, Debye):
    X=              0.0000    Y=              0.0000    Z=              0.0000  Tot=              0.0000
 Quadrupole moment (field-independent basis, Debye-Ang):
   XX=            -22.1009   YY=            -22.1009   ZZ=            -33.1145
   XY=              0.0000   XZ=              0.0000   YZ=              0.0000

 Normal termination of Gaussian 16 at Mon Dec  6 11:56:01 2021.
