 Gaussian 16, Revision A.03,
 Gaussian 16:  EM64L-G16RevA.03 25-Dec-2016

 ------------------------------------------------
 #P rhf nosymm output=matrix int=noraf scf=conven
 ------------------------------------------------

 ----
 Li-H
 ----
 Symbolic Z-matrix:
 Charge =  0 Multiplicity = 1

                          Input orientation:
 ---------------------------------------------------------------------
 Center     Atomic      Atomic             Coordinates (Angstroms)
 Number     Number       Type             X           Y           Z
 ---------------------------------------------------------------------
      1          3           0        0.000000    0.000000    0.000000
      2          1           0        0.000000    0.000000    1.530000
 ---------------------------------------------------------------------

 SCF Done:  E(RHF) =  -7.86330713133     A.U. after    8 cycles

 Alpha  occ. eigenvalues --   -2.34732  -0.29113
 Alpha virt. eigenvalues --    0.07879   0.16384   0.16384   0.56664

 Mulliken charges:
               1
     1  Li  -0.016754
     2  H    0.016754
 Sum of Mulliken charges =   0.00000

 Dipole moment (field-independent basis, Debye):
    X=              0.0000    Y=              0.0000    Z=             -4.8428  Tot=              4.8428
 Quadrupole moment (field-independent basis, Debye-Ang):
   XX=             -5.2448   YY=             -5.2448   ZZ=             -8.7902
   XY=             -0.0000   XZ=              0.0000   YZ=              0.0000

 Normal termination of Gaussian 16 at Sat Dec  4 02:18:09 2021.
