 Gaussian 16, Revision A.03,
 Gaussian 16:  EM64L-G16RevA.03 25-Dec-2016

 ------------------------------------------------
 #P rhf nosymm output=matrix int=noraf scf=conven
 ------------------------------------------------

 -----------------
 Hydrogen_Molecule
 -----------------
 Symbolic Z-matrix:
 Charge =  0 Multiplicity = 1

                          Input orientation:
 ---------------------------------------------------------------------
 Center     Atomic      Atomic             Coordinates (Angstroms)
 Number     Number       Type             X           Y           Z
 ---------------------------------------------------------------------
      1          1           0        0.000000    0.000000    0.000000
      2          1           0        0.000000    0.000000    1.000000
      3          1           0        0.000000    0.000000    2.000000
      4          1           0        0.000000    0.000000    3.000000
      5          1           0        0.000000    0.000000    4.000000
      6          1           0        0.000000    0.000000    5.000000
      7          1           0        0.000000    0.000000    6.000000
      8          1           0        0.000000    0.000000    7.000000
      9          1           0        0.000000    0.000000    8.000000
     10          1           0        0.000000    0.000000    9.000000
     11          1           0        0.000000    0.000000   10.000000
     12          1           0        0.000000    0.000000   11.000000
     13          1           0        0.000000    0.000000   12.000000
     14          1           0        0.000000    0.000000   13.000000
     15          1           0        0.000000    0.000000   14.000000
     16          1           0        0.000000    0.000000   15.000000
     17          1           0        0.000000    0.000000   16.000000
     18          1           0        0.000000    0.000000   17.000000
     19          1           0        0.000000    0.000000   18.000000
     20          1           0        0.000000    0.000000   19.000000
     21          1           0        0.000000    0.000000   20.000000
     22          1           0        0.000000    0.000000   21.000000
     23          1           0        0.000000    0.000000   22.000000
     24          1           0        0.000000    0.000000   23.000000
     25          1           0        0.000000    0.000000   24.000000
     26          1           0        0.000000    0.000000   25.000000
     27          1           0        0.000000    0.000000   26.000000
     28          1           0        0.000000    0.000000   27.000000
     29          1           0        0.000000    0.000000   28.000000
     30          1           0        0.000000    0.000000   29.000000
     31          1           0        0.000000    0.000000   30.000000
     32          1           0        0.000000    0.000000   31.000000
     33          1           0        0.000000    0.000000   32.000000
     34          1           0        0.000000    0.000000   33.000000
     35          1           0        0.000000    0.000000   34.000000
     36          1           0        0.000000    0.000000   35.000000
     37          1           0        0.000000    0.000000   36.000000
     38          1           0        0.000000    0.000000   37.000000
     39          1           0        0.000000    0.000000   38.000000
     40          1           0        0.000000    0.000000   39.000000
     41          1           0        0.000000    0.000000   40.000000
     42          1           0        0.000000    0.000000   41.000000
     43          1           0        0.000000    0.000000   42.000000
     44          1           0        0.000000    0.000000   43.000000
     45          1           0        0.000000    0.000000   44.000000
     46          1           0        0.000000    0.000000   45.000000
     47          1           0        0.000000    0.000000   46.000000
     48          1           0        0.000000    0.000000   47.000000
 ---------------------------------------------------------------------

 SCF Done:  E(RHF) =  -24.9880314368     A.U. after   13 cycles

 Alpha  occ. eigenvalues --   -0.70508  -0.70261  -0.69836  -0.69243  -0.68479
 Alpha  occ. eigenvalues --   -0.67543  -0.66432  -0.65144  -0.63672  -0.62013
 Alpha  occ. eigenvalues --   -0.60161  -0.58107  -0.55845  -0.53366  -0.50659
 Alpha  occ. eigenvalues --   -0.47714  -0.44519  -0.41061  -0.37327  -0.33310
 Alpha  occ. eigenvalues --   -0.29014  -0.24477  -0.19851  -0.15677
 Alpha virt. eigenvalues --    0.04505   0.09076   0.14543   0.20338   0.26295
 Alpha virt. eigenvalues --    0.32363   0.38523   0.44767   0.51082   0.57453
 Alpha virt. eigenvalues --    0.63858   0.70266   0.76636   0.82920   0.89057

 Mulliken charges:
               1
     1  H   -0.022541
     2  H    0.010886
     3  H   -0.006627
     4  H    0.008632
     5  H   -0.003793
     6  H    0.005455
     7  H   -0.002667
     8  H    0.004013
     9  H   -0.002015
    10  H    0.003148
    11  H   -0.001553
    12  H    0.002539
    13  H   -0.001184
    14  H    0.002066
    15  H   -0.000867
    16  H    0.001673
    17  H   -0.000579
    18  H    0.001331
    19  H   -0.000310
    20  H    0.001024
    21  H   -0.000049
    22  H    0.000739
    23  H    0.000209
    24  H    0.000470
    25  H    0.000470
    26  H    0.000209
    27  H    0.000739
    28  H   -0.000049
    29  H    0.001024
    30  H   -0.000310
    31  H    0.001331
    32  H   -0.000579
    33  H    0.001673
    34  H   -0.000867
    35  H    0.002066
    36  H   -0.001184
    37  H    0.002539
    38  H   -0.001553
    39  H    0.003148
    40  H   -0.002015
    41  H    0.004013
    42  H   -0.002667
    43  H    0.005455
    44  H   -0.003793
    45  H    0.008632
    46  H   -0.006627
    47  H    0.010886
    48  H   -0.022541
 Sum of Mulliken charges =  -0.00000

 Dipole moment (field-independent basis, Debye):
    X=              0.0000    Y=              0.0000    Z=              0.0000  Tot=              0.0000
 Quadrupole moment (field-independent basis, Debye-Ang):
   XX=            -44.1725   YY=            -44.1725   ZZ=            -88.6238
   XY=              0.0000   XZ=              0.0000   YZ=              0.0000

 Normal termination of Gaussian 16 at Mon Dec  6 11:57:56 2021.
