 Gaussian 16, Revision A.03,
 Gaussian 16:  EM64L-G16RevA.03 25-Dec-2016

 ----------------------------------
 #P rhf/sto-3g nosymm output=matrix
 ----------------------------------

 ----
 Test
 ----
 Symbolic Z-matrix:
 Charge =  0 Multiplicity = 1

                          Input orientation:
 ---------------------------------------------------------------------
 Center     Atomic      Atomic             Coordinates (Angstroms)
 Number     Number       Type             X           Y           Z
 ---------------------------------------------------------------------
      1          1           0        1.000000    0.000000    0.000000
      2          1           0        2.000000    0.000000    0.000000
      3          1           0        3.000000    0.000000    0.000000
      4          1           0        4.000000    0.000000    0.000000
      5          1           0        5.000000    0.000000    0.000000
      6          1           0        6.000000    0.000000    0.000000
      7          1           0        7.000000    0.000000    0.000000
      8          1           0        8.000000    0.000000    0.000000
      9          1           0        9.000000    0.000000    0.000000
     10          1           0       10.000000    0.000000    0.000000
     11          1           0       11.000000    0.000000    0.000000
     12          1           0       12.000000    0.000000    0.000000
     13          1           0       13.000000    0.000000    0.000000
     14          1           0       14.000000    0.000000    0.000000
     15          1           0       15.000000    0.000000    0.000000
     16          1           0       16.000000    0.000000    0.000000
     17          1           0       17.000000    0.000000    0.000000
     18          1           0       18.000000    0.000000    0.000000
     19          1           0       19.000000    0.000000    0.000000
     20          1           0       20.000000    0.000000    0.000000
     21          1           0       21.000000    0.000000    0.000000
     22          1           0       22.000000    0.000000    0.000000
     23          1           0       23.000000    0.000000    0.000000
     24          1           0       24.000000    0.000000    0.000000
     25          1           0       25.000000    0.000000    0.000000
     26          1           0       26.000000    0.000000    0.000000
     27          1           0       27.000000    0.000000    0.000000
     28          1           0       28.000000    0.000000    0.000000
     29          1           0       29.000000    0.000000    0.000000
     30          1           0       30.000000    0.000000    0.000000
     31          1           0       31.000000    0.000000    0.000000
     32          1           0       32.000000    0.000000    0.000000
 ---------------------------------------------------------------------

 SCF Done:  E(RHF) =  -16.6613270244     A.U. after   11 cycles

 Alpha  occ. eigenvalues --   -0.70474  -0.69905  -0.68958  -0.67634  -0.65926
 Alpha  occ. eigenvalues --   -0.63824  -0.61313  -0.58375  -0.54987  -0.51123
 Alpha  occ. eigenvalues --   -0.46752  -0.41841  -0.36360  -0.30299  -0.23752
 Alpha  occ. eigenvalues --   -0.17290
 Alpha virt. eigenvalues --    0.06011   0.13394   0.21784   0.30563   0.39598
 Alpha virt. eigenvalues --    0.48840   0.58241   0.67724   0.77175   0.86434
 Alpha virt. eigenvalues --    0.95292   1.03499   1.10775   1.16827   1.21384

 Mulliken charges:
               1
     1  H   -0.022035
     2  H    0.010756
     3  H   -0.006116
     4  H    0.008425
     5  H   -0.003197
     6  H    0.005166
     7  H   -0.001972
     8  H    0.003637
     9  H   -0.001210
    10  H    0.002680
    11  H   -0.000622
    12  H    0.001970
    13  H   -0.000109
    14  H    0.001385
    15  H    0.000377
    16  H    0.000866
    17  H    0.000866
    18  H    0.000377
    19  H    0.001385
    20  H   -0.000109
    21  H    0.001970
    22  H   -0.000622
    23  H    0.002680
    24  H   -0.001210
    25  H    0.003637
    26  H   -0.001972
    27  H    0.005166
    28  H   -0.003197
    29  H    0.008425
    30  H   -0.006116
    31  H    0.010756
    32  H   -0.022035
 Sum of Mulliken charges =  -0.00000

 Dipole moment (field-independent basis, Debye):
    X=             -0.0000    Y=              0.0000    Z=              0.0000  Tot=              0.0000
 Quadrupole moment (field-independent basis, Debye-Ang):
   XX=            -49.7408   YY=            -29.4579   ZZ=            -29.4579
   XY=              0.0000   XZ=              0.0000   YZ=              0.0000

 Normal termination of Gaussian 16 at Fri Dec  3 20:46:31 2021.
