 Gaussian 16, Revision A.03,
 Gaussian 16:  EM64L-G16RevA.03 25-Dec-2016

 ----------------------------
 # hf/3-21g geom=connectivity
 ----------------------------

 -------------------
 Title Card Required
 -------------------
 Symbolic Z-matrix:
 Charge =  0 Multiplicity = 1

                         Standard orientation:
 ---------------------------------------------------------------------
 Center     Atomic      Atomic             Coordinates (Angstroms)
 Number     Number       Type             X           Y           Z
 ---------------------------------------------------------------------
      1          2           0        0.000000    0.000000    1.160000
      2          2           0        0.000000    0.000000   -1.160000
 ---------------------------------------------------------------------

 SCF Done:  E(RHF) =  -5.67111916130     A.U. after    4 cycles

 The electronic state is 1-SGG.
 Alpha  occ. eigenvalues --   -0.91311  -0.89383
 Alpha virt. eigenvalues --    2.01842   2.15016

 Mulliken charges:
               1
     1  He  -0.000000
     2  He  -0.000000
 Sum of Mulliken charges =  -0.00000

 Dipole moment (field-independent basis, Debye):
    X=             -0.0000    Y=              0.0000    Z=              0.0000  Tot=              0.0000
 Quadrupole moment (field-independent basis, Debye-Ang):
   XX=             -2.0225   YY=             -2.0225   ZZ=             -2.0238
   XY=              0.0000   XZ=              0.0000   YZ=              0.0000

 Normal termination of Gaussian 16 at Sat Dec  4 01:49:34 2021.
