 Gaussian 16, Revision A.03,
 Gaussian 16:  EM64L-G16RevA.03 25-Dec-2016

 ------------------------------------------------
 #P rhf nosymm output=matrix int=noraf scf=conven
 ------------------------------------------------

 -----------------
 nitrogen_molecule
 -----------------
 Symbolic Z-matrix:
 Charge =  0 Multiplicity = 1

                          Input orientation:
 ---------------------------------------------------------------------
 Center     Atomic      Atomic             Coordinates (Angstroms)
 Number     Number       Type             X           Y           Z
 ---------------------------------------------------------------------
      1          7           0        0.000000    0.000000    0.000000
      2          7           0        0.000000    0.000000    1.092000
 ---------------------------------------------------------------------

 SCF Done:  E(RHF) =  -107.494194475     A.U. after    5 cycles

 Alpha  occ. eigenvalues --  -15.51998 -15.51794  -1.44814  -0.72174  -0.57696
 Alpha  occ. eigenvalues --   -0.57696  -0.54090
 Alpha virt. eigenvalues --    0.28383   0.28383   1.13664

 Mulliken charges:
               1
     1  N    0.000000
     2  N   -0.000000
 Sum of Mulliken charges =   0.00000

 Dipole moment (field-independent basis, Debye):
    X=             -0.0000    Y=              0.0000    Z=             -0.0000  Tot=              0.0000
 Quadrupole moment (field-independent basis, Debye-Ang):
   XX=             -9.1947   YY=             -9.1947   ZZ=            -11.7728
   XY=             -0.0000   XZ=             -0.0000   YZ=              0.0000

 Normal termination of Gaussian 16 at Sat Dec  4 17:11:27 2021.
