 Gaussian 16, Revision A.03,
 Gaussian 16:  EM64L-G16RevA.03 25-Dec-2016

 ------------------------------------------------
 #P rhf nosymm output=matrix int=noraf scf=conven
 ------------------------------------------------

 ------------
 NH3_Molecule
 ------------
 Symbolic Z-matrix:
 Charge =  0 Multiplicity = 1

                          Input orientation:
 ---------------------------------------------------------------------
 Center     Atomic      Atomic             Coordinates (Angstroms)
 Number     Number       Type             X           Y           Z
 ---------------------------------------------------------------------
      1          7           0        0.000000    0.000000    0.000000
      2          1           0        0.000000    0.000000    1.000000
      3          1           0        0.942809    0.000000   -0.333333
      4          1           0       -0.471404   -0.816497   -0.333333
 ---------------------------------------------------------------------

 SCF Done:  E(RHF) =  -55.4512987493     A.U. after    7 cycles

 Alpha  occ. eigenvalues --  -15.29612  -1.08818  -0.58020  -0.58020  -0.34516
 Alpha virt. eigenvalues --    0.64506   0.75537   0.75537

 Mulliken charges:
               1
     1  N   -0.491816
     2  H    0.163939
     3  H    0.163939
     4  H    0.163939
 Sum of Mulliken charges =  -0.00000

 Dipole moment (field-independent basis, Debye):
    X=              0.7779    Y=             -1.3473    Z=              0.5500  Tot=              1.6501
 Quadrupole moment (field-independent basis, Debye-Ang):
   XX=             -6.1565   YY=             -6.8615   ZZ=             -5.9802
   XY=              0.6105   XZ=             -0.2492   YZ=              0.4317

 Normal termination of Gaussian 16 at Sat Dec  4 02:32:44 2021.
