 Gaussian 16, Revision A.03,
 Gaussian 16:  EM64L-G16RevA.03 25-Dec-2016

 ------------------------------------------------
 #P rhf nosymm output=matrix int=noraf scf=conven
 ------------------------------------------------

 -----------------
 Hydrogen_Molecule
 -----------------
 Symbolic Z-matrix:
 Charge =  0 Multiplicity = 1

                          Input orientation:
 ---------------------------------------------------------------------
 Center     Atomic      Atomic             Coordinates (Angstroms)
 Number     Number       Type             X           Y           Z
 ---------------------------------------------------------------------
      1          1           0        0.000000    0.000000    0.000000
      2          1           0        0.000000    0.000000    1.000000
      3          1           0        0.000000    0.000000    2.000000
      4          1           0        0.000000    0.000000    3.000000
      5          1           0        0.000000    0.000000    4.000000
      6          1           0        0.000000    0.000000    5.000000
      7          1           0        0.000000    0.000000    6.000000
      8          1           0        0.000000    0.000000    7.000000
 ---------------------------------------------------------------------

 SCF Done:  E(RHF) =  -4.17436981589     A.U. after    9 cycles

 Alpha  occ. eigenvalues --   -0.68308  -0.60365  -0.47262  -0.28955
 Alpha virt. eigenvalues --    0.18084   0.47926   0.81649   1.11844

 Mulliken charges:
               1
     1  H   -0.016123
     2  H    0.009586
     3  H    0.000273
     4  H    0.006264
     5  H    0.006264
     6  H    0.000273
     7  H    0.009586
     8  H   -0.016123
 Sum of Mulliken charges =  -0.00000

 Dipole moment (field-independent basis, Debye):
    X=              0.0000    Y=              0.0000    Z=             -0.0000  Tot=              0.0000
 Quadrupole moment (field-independent basis, Debye-Ang):
   XX=             -7.3903   YY=             -7.3903   ZZ=             -7.4119
   XY=              0.0000   XZ=              0.0000   YZ=              0.0000

 Normal termination of Gaussian 16 at Fri Dec  3 22:00:32 2021.
