 Gaussian 16, Revision A.03,
 Gaussian 16:  EM64L-G16RevA.03 25-Dec-2016

 ----------------------------------------
 #P rhf/6-31g(d) geom=connectivity stable
 ----------------------------------------

 ----------------------------------------
 Stability test for a singlet carbon atom
 ----------------------------------------
 Symbolic Z-matrix:
 Charge =  0 Multiplicity = 1

                         Standard orientation:
 ---------------------------------------------------------------------
 Center     Atomic      Atomic             Coordinates (Angstroms)
 Number     Number       Type             X           Y           Z
 ---------------------------------------------------------------------
      1          6           0        0.000000    0.000000    0.000000
 ---------------------------------------------------------------------

 SCF Done:  E(RHF) =  -37.5885578727     A.U. after    7 cycles

 Unable to determine electronic state:  an orbital has unidentified symmetry.
 Alpha  occ. eigenvalues --  -11.34608  -0.70991  -0.34225
 Alpha virt. eigenvalues --    0.06677   0.06677   0.75899   0.76594   0.78954
 Alpha virt. eigenvalues --    0.78954   1.96266   1.96266   1.98479   1.98479
 Alpha virt. eigenvalues --    1.99213   4.16937

 Mulliken charges:
               1
     1  C    0.000000
 Sum of Mulliken charges =   0.00000

 Dipole moment (field-independent basis, Debye):
    X=              0.0000    Y=              0.0000    Z=              0.0000  Tot=              0.0000
 Quadrupole moment (field-independent basis, Debye-Ang):
   XX=             -4.7247   YY=             -4.7247   ZZ=             -8.6919
   XY=              0.0000   XZ=             -0.0000   YZ=              0.0000

 Normal termination of Gaussian 16 at Tue Dec 14 12:31:05 2021.
