 Gaussian 16, Revision A.03,
 Gaussian 16:  EM64L-G16RevA.03 25-Dec-2016

 ----------------------------------------
 #P uhf/6-31g(d) geom=connectivity stable
 ----------------------------------------

 -----------------------------------
 Stability test for a triplet carbon
 -----------------------------------
 Symbolic Z-matrix:
 Charge =  0 Multiplicity = 3

                         Standard orientation:
 ---------------------------------------------------------------------
 Center     Atomic      Atomic             Coordinates (Angstroms)
 Number     Number       Type             X           Y           Z
 ---------------------------------------------------------------------
      1          6           0        0.000000    0.000000    0.000000
 ---------------------------------------------------------------------

 SCF Done:  E(UHF) =  -37.6808603247     A.U. after    8 cycles

 Unable to determine electronic state:  an orbital has unidentified symmetry.
 Alpha  occ. eigenvalues --  -11.33309  -0.82018  -0.42928  -0.42928
 Alpha virt. eigenvalues --    0.05473   0.70763   0.70763   0.74126   0.78768
 Alpha virt. eigenvalues --    1.90179   1.90179   1.93416   1.93416   1.94657
 Alpha virt. eigenvalues --    4.15821
  Beta  occ. eigenvalues --  -11.29038  -0.57535
  Beta virt. eigenvalues --    0.09857   0.15764   0.15764   0.80999   0.81858
  Beta virt. eigenvalues --    0.87131   0.87131   2.02437   2.04083   2.04083
  Beta virt. eigenvalues --    2.09509   2.09509   4.22115

 Mulliken charges and spin densities:
               1          2
     1  C   -0.000000   2.000000
 Sum of Mulliken charges =  -0.00000   2.00000

 Dipole moment (field-independent basis, Debye):
    X=              0.0000    Y=              0.0000    Z=              0.0000  Tot=              0.0000
 Quadrupole moment (field-independent basis, Debye-Ang):
   XX=             -6.5163   YY=             -4.6491   ZZ=             -6.5163
   XY=             -0.0000   XZ=              0.0000   YZ=              0.0000

 Normal termination of Gaussian 16 at Tue Dec 14 12:31:29 2021.
