 Gaussian 16, Revision A.03,
 Gaussian 16:  EM64L-G16RevA.03 25-Dec-2016

 ------------------------
 #P rhf/6-31g(d) test opt
 ------------------------

 --------------------------------------------------------------
 Etheylene Optimization using parameters in gaussian book pg 42
 --------------------------------------------------------------
 Symbolic Z-matrix:
 Charge =  0 Multiplicity = 1

 SCF Done:  E(RHF) =  -78.0315145601     A.U. after    9 cycles
 SCF Done:  E(RHF) =  -78.0317108710     A.U. after    7 cycles
 SCF Done:  E(RHF) =  -78.0317180626     A.U. after    6 cycles
 Optimization completed.
    -- Stationary point found.

                         Standard orientation:
 ---------------------------------------------------------------------
 Center     Atomic      Atomic             Coordinates (Angstroms)
 Number     Number       Type             X           Y           Z
 ---------------------------------------------------------------------
      1          6           0        0.000000    0.000000    0.658510
      2          6           0        0.000000   -0.000000   -0.658510
      3          1           0        0.000000    0.914545    1.225446
      4          1           0       -0.000000   -0.914545    1.225446
      5          1           0       -0.000000   -0.914545   -1.225446
      6          1           0        0.000000    0.914545   -1.225446
 ---------------------------------------------------------------------

 The electronic state is 1-AG.
 Alpha  occ. eigenvalues --  -11.22432 -11.22252  -1.03314  -0.78953  -0.64073
 Alpha  occ. eigenvalues --   -0.58641  -0.50201  -0.37436
 Alpha virt. eigenvalues --    0.18390   0.26676   0.29316   0.31116   0.39303
 Alpha virt. eigenvalues --    0.49561   0.66184   0.76810   0.77267   0.85232
 Alpha virt. eigenvalues --    0.89375   0.96625   1.11004   1.16371   1.21209

 Mulliken charges:
               1
     1  C   -0.352753
     2  C   -0.352753
     3  H    0.176377
     4  H    0.176377
     5  H    0.176377
     6  H    0.176377
 Sum of Mulliken charges =  -0.00000

 Dipole moment (field-independent basis, Debye):
    X=             -0.0000    Y=             -0.0000    Z=             -0.0000  Tot=              0.0000
 Quadrupole moment (field-independent basis, Debye-Ang):
   XX=            -15.3755   YY=            -12.2357   ZZ=            -11.9848
   XY=              0.0000   XZ=             -0.0000   YZ=             -0.0000

 Normal termination of Gaussian 16 at Tue Dec 14 13:38:54 2021.
