 Gaussian 16, Revision A.03,
 Gaussian 16:  EM64L-G16RevA.03 25-Dec-2016

 ------------------------
 #P rhf/6-31g(d) test opt
 ------------------------

 ----------------------
 Etheylene Optimization
 ----------------------
 Symbolic Z-matrix:
 Charge =  0 Multiplicity = 1

 SCF Done:  E(RHF) =  -78.0293913541     A.U. after    9 cycles
 SCF Done:  E(RHF) =  -78.0315584825     A.U. after    8 cycles
 SCF Done:  E(RHF) =  -78.0317177551     A.U. after    7 cycles
 Optimization completed.
    -- Stationary point found.

                         Standard orientation:
 ---------------------------------------------------------------------
 Center     Atomic      Atomic             Coordinates (Angstroms)
 Number     Number       Type             X           Y           Z
 ---------------------------------------------------------------------
      1          6           0        0.000000    0.658552    0.000000
      2          1           0        0.914941    1.225193    0.000000
      3          1           0       -0.914687    1.225606    0.000000
      4          6           0        0.000000   -0.658552    0.000000
      5          1           0       -0.914941   -1.225193    0.000000
      6          1           0        0.914687   -1.225606    0.000000
 ---------------------------------------------------------------------

 The electronic state is 1-AG.
 Alpha  occ. eigenvalues --  -11.22437 -11.22257  -1.03310  -0.78943  -0.64071
 Alpha  occ. eigenvalues --   -0.58632  -0.50200  -0.37434
 Alpha virt. eigenvalues --    0.18388   0.26669   0.29311   0.31112   0.39299
 Alpha virt. eigenvalues --    0.49554   0.66185   0.76823   0.77267   0.85229
 Alpha virt. eigenvalues --    0.89372   0.96624   1.10995   1.16361   1.21183

 Mulliken charges:
               1
     1  C   -0.352754
     2  H    0.176352
     3  H    0.176401
     4  C   -0.352754
     5  H    0.176352
     6  H    0.176401
 Sum of Mulliken charges =   0.00000

 Dipole moment (field-independent basis, Debye):
    X=              0.0000    Y=             -0.0000    Z=              0.0000  Tot=              0.0000
 Quadrupole moment (field-independent basis, Debye-Ang):
   XX=            -12.2346   YY=            -11.9869   ZZ=            -15.3768
   XY=             -0.0010   XZ=              0.0000   YZ=             -0.0000

 Normal termination of Gaussian 16 at Tue Dec 14 13:24:00 2021.
