 Gaussian 16, Revision A.03,
 Gaussian 16:  EM64L-G16RevA.03 25-Dec-2016

 -----------------------------------
 # opt hf/6-31g(d) geom=connectivity
 -----------------------------------

 -------------------
 Title Card Required
 -------------------
 Symbolic Z-matrix:
 Charge =  0 Multiplicity = 1

 SCF Done:  E(RHF) =  -116.887553077     A.U. after   13 cycles
 SCF Done:  E(RHF) =  -116.937038115     A.U. after   12 cycles
 SCF Done:  E(RHF) =  -117.000571510     A.U. after   13 cycles
 SCF Done:  E(RHF) =  -117.033907116     A.U. after   13 cycles
 SCF Done:  E(RHF) =  -117.045489961     A.U. after   11 cycles
 SCF Done:  E(RHF) =  -117.059458730     A.U. after   11 cycles
 SCF Done:  E(RHF) =  -117.069299453     A.U. after   13 cycles
 SCF Done:  E(RHF) =  -117.070668607     A.U. after   11 cycles
 SCF Done:  E(RHF) =  -117.071331397     A.U. after   11 cycles
 SCF Done:  E(RHF) =  -117.071467595     A.U. after   10 cycles
 SCF Done:  E(RHF) =  -117.071469641     A.U. after    9 cycles
 SCF Done:  E(RHF) =  -117.071471208     A.U. after    8 cycles
 Optimization completed.
    -- Stationary point found.

                         Standard orientation:
 ---------------------------------------------------------------------
 Center     Atomic      Atomic             Coordinates (Angstroms)
 Number     Number       Type             X           Y           Z
 ---------------------------------------------------------------------
      1          6           0       -0.139664    0.452172   -0.000183
      2          1           0       -0.173918    1.530706    0.000146
      3          6           0       -1.273372   -0.220965   -0.000010
      4          1           0       -2.226088    0.278232    0.000408
      5          1           0       -1.295087   -1.297767   -0.000046
      6          6           0        1.232585   -0.160393    0.000062
      7          1           0        1.796949    0.153120    0.874423
      8          1           0        1.182911   -1.243618   -0.000902
      9          1           0        1.797937    0.154445   -0.873247
 ---------------------------------------------------------------------

 The electronic state is 1-A.
 Alpha  occ. eigenvalues --  -11.22843 -11.21784 -11.21262  -1.06264  -0.93242
 Alpha  occ. eigenvalues --   -0.75598  -0.63731  -0.58148  -0.56653  -0.52279
 Alpha  occ. eigenvalues --   -0.48641  -0.35704
 Alpha virt. eigenvalues --    0.19286   0.25621   0.28513   0.29840   0.32891
 Alpha virt. eigenvalues --    0.33522   0.35119   0.44934   0.54931   0.68821
 Alpha virt. eigenvalues --    0.73653   0.74790   0.83051   0.84930   0.90944

 Mulliken charges:
               1
     1  C   -0.121575
     2  H    0.175408
     3  C   -0.396404
     4  H    0.173273
     5  H    0.168744
     6  C   -0.511673
     7  H    0.170468
     8  H    0.171344
     9  H    0.170416
 Sum of Mulliken charges =   0.00000

 Dipole moment (field-independent basis, Debye):
    X=              0.2928    Y=              0.0873    Z=              0.0007  Tot=              0.3055
 Quadrupole moment (field-independent basis, Debye-Ang):
   XX=            -19.1742   YY=            -18.8272   ZZ=            -21.7355
   XY=              0.1965   XZ=             -0.0007   YZ=              0.0007

 Normal termination of Gaussian 16 at Wed Dec 15 11:01:57 2021.
