 Gaussian 16, Revision A.03,
 Gaussian 16:  EM64L-G16RevA.03 25-Dec-2016

 -----------------------------------
 # opt hf/6-31g(d) geom=connectivity
 -----------------------------------

 -------------------
 Title Card Required
 -------------------
 Symbolic Z-matrix:
 Charge =  0 Multiplicity = 1

 SCF Done:  E(RHF) =  -116.630354474     A.U. after   13 cycles
 SCF Done:  E(RHF) =  -116.791157084     A.U. after   14 cycles
 SCF Done:  E(RHF) =  -116.876663547     A.U. after   14 cycles
 SCF Done:  E(RHF) =  -116.877394973     A.U. after   14 cycles
 SCF Done:  E(RHF) =  -116.971875097     A.U. after   13 cycles
 SCF Done:  E(RHF) =  -117.060764742     A.U. after   13 cycles
 SCF Done:  E(RHF) =  -117.066683379     A.U. after   11 cycles
 SCF Done:  E(RHF) =  -117.067947985     A.U. after   12 cycles
 SCF Done:  E(RHF) =  -117.069753608     A.U. after   11 cycles
 SCF Done:  E(RHF) =  -117.070882815     A.U. after   11 cycles
 SCF Done:  E(RHF) =  -117.071423624     A.U. after   12 cycles
 SCF Done:  E(RHF) =  -117.071453782     A.U. after   10 cycles
 SCF Done:  E(RHF) =  -117.071469202     A.U. after    8 cycles
 SCF Done:  E(RHF) =  -117.071471094     A.U. after    8 cycles
 Optimization completed.
    -- Stationary point found.

                         Standard orientation:
 ---------------------------------------------------------------------
 Center     Atomic      Atomic             Coordinates (Angstroms)
 Number     Number       Type             X           Y           Z
 ---------------------------------------------------------------------
      1          6           0       -0.139639    0.452156    0.000003
      2          1           0       -0.173694    1.530713   -0.000496
      3          6           0       -1.273322   -0.220915    0.000026
      4          1           0       -2.226047    0.278313   -0.000149
      5          1           0       -1.295409   -1.297733    0.000240
      6          6           0        1.232575   -0.160345    0.000111
      7          1           0        1.797442    0.152691   -0.874183
      8          1           0        1.797543    0.154292    0.873687
      9          1           0        1.182481   -1.243653    0.000062
 ---------------------------------------------------------------------

 The electronic state is 1-A.
 Alpha  occ. eigenvalues --  -11.22843 -11.21784 -11.21262  -1.06265  -0.93241
 Alpha  occ. eigenvalues --   -0.75598  -0.63731  -0.58149  -0.56656  -0.52277
 Alpha  occ. eigenvalues --   -0.48638  -0.35706
 Alpha virt. eigenvalues --    0.19286   0.25621   0.28512   0.29840   0.32892
 Alpha virt. eigenvalues --    0.33518   0.35121   0.44934   0.54937   0.68823
 Alpha virt. eigenvalues --    0.73652   0.74792   0.83053   0.84935   0.90943

 Mulliken charges:
               1
     1  C   -0.121530
     2  H    0.175402
     3  C   -0.396401
     4  H    0.173258
     5  H    0.168753
     6  C   -0.511677
     7  H    0.170435
     8  H    0.170465
     9  H    0.171296
 Sum of Mulliken charges =  -0.00000

 Dipole moment (field-independent basis, Debye):
    X=              0.2925    Y=              0.0872    Z=             -0.0005  Tot=              0.3052
 Quadrupole moment (field-independent basis, Debye-Ang):
   XX=            -19.1741   YY=            -18.8282   ZZ=            -21.7348
   XY=              0.1977   XZ=             -0.0001   YZ=              0.0009

 Normal termination of Gaussian 16 at Wed Dec 15 11:03:08 2021.
