 Gaussian 16, Revision A.03,
 Gaussian 16:  EM64L-G16RevA.03 25-Dec-2016

 -----------------------------------------------
 # RMP2/6-31g(d) geom=connectivity pop=full test
 -----------------------------------------------

 ----------------------------------------------------------
 Single Point Energy Calculation for Formaldehyde using RHF
 ----------------------------------------------------------
 Symbolic Z-matrix:
 Charge =  0 Multiplicity = 1

                         Standard orientation:
 ---------------------------------------------------------------------
 Center     Atomic      Atomic             Coordinates (Angstroms)
 Number     Number       Type             X           Y           Z
 ---------------------------------------------------------------------
      1          6           0        0.000199    0.562211    0.000000
      2          1           0        0.924720    1.100877    0.000000
      3          1           0       -0.927506    1.095374   -0.000000
      4          8           0        0.000199   -0.696189   -0.000000
 ---------------------------------------------------------------------

 SCF Done:  E(RHF) =  -113.857032887     A.U. after   11 cycles
 E2 =    -0.3074922193D+00 EUMP2 =    -0.11416452510625D+03

 The electronic state is 1-A'.
 Alpha  occ. eigenvalues --  -20.58381 -11.34280  -1.36813  -0.88411  -0.69406
 Alpha  occ. eigenvalues --   -0.62953  -0.50724  -0.44573
 Alpha virt. eigenvalues --    0.12404   0.25006   0.33084   0.36931   0.73993
 Alpha virt. eigenvalues --    0.80115   0.83730   0.90404   1.11162   1.11452
 Alpha virt. eigenvalues --    1.14991   1.27247   1.33386   1.61118   1.77363

 Mulliken charges:
               1
     1  C    0.130447
     2  H    0.166342
     3  H    0.166077
     4  O   -0.462866
 Sum of Mulliken charges =  -0.00000

 Dipole moment (field-independent basis, Debye):
    X=              0.0006    Y=              3.0337    Z=              0.0000  Tot=              3.0337
 Quadrupole moment (field-independent basis, Debye-Ang):
   XX=            -11.2942   YY=            -11.7780   ZZ=            -11.5999
   XY=              0.0060   XZ=              0.0000   YZ=              0.0000

 Normal termination of Gaussian 16 at Mon Dec 13 11:09:16 2021.
