 Gaussian 16, Revision A.03,
 Gaussian 16:  EM64L-G16RevA.03 25-Dec-2016

 ---------------------------------------------------
 #P rhf/6-31g(d) geom=connectivity pop=full nmr test
 ---------------------------------------------------

 -----------
 Methane NMR
 -----------
 Symbolic Z-matrix:
 Charge =  0 Multiplicity = 1

                         Standard orientation:
 ---------------------------------------------------------------------
 Center     Atomic      Atomic             Coordinates (Angstroms)
 Number     Number       Type             X           Y           Z
 ---------------------------------------------------------------------
      1          6           0        0.000000   -0.000000    0.000000
      2          1           0        0.617765    0.617765    0.617765
      3          1           0       -0.617765   -0.617765    0.617765
      4          1           0       -0.617765    0.617765   -0.617765
      5          1           0        0.617765   -0.617765   -0.617765
 ---------------------------------------------------------------------

 SCF Done:  E(RHF) =  -40.1946397194     A.U. after    8 cycles

      1  C    Isotropic =   203.7667   Anisotropy =     0.0000

      2  H    Isotropic =    32.8507   Anisotropy =     9.4972

      3  H    Isotropic =    32.8507   Anisotropy =     9.4972

      4  H    Isotropic =    32.8507   Anisotropy =     9.4972

      5  H    Isotropic =    32.8507   Anisotropy =     9.4972

 The electronic state is 1-A.
 Alpha  occ. eigenvalues --  -11.19828  -0.95026  -0.54972  -0.54972  -0.54972
 Alpha virt. eigenvalues --    0.25968   0.33158   0.33158   0.33158   0.72334
 Alpha virt. eigenvalues --    0.72334   0.72334   1.19701   1.19701   1.19701
 Alpha virt. eigenvalues --    1.27372   1.32075   1.93840   1.93840   2.61196

 Mulliken charges:
               1
     1  C   -0.664009
     2  H    0.166002
     3  H    0.166002
     4  H    0.166002
     5  H    0.166002
 Sum of Mulliken charges =   0.00000

 Dipole moment (field-independent basis, Debye):
    X=              0.0000    Y=              0.0000    Z=              0.0000  Tot=              0.0000
 Quadrupole moment (field-independent basis, Debye-Ang):
   XX=             -8.3268   YY=             -8.3268   ZZ=             -8.3268
   XY=              0.0000   XZ=              0.0000   YZ=              0.0000

 Normal termination of Gaussian 16 at Mon Dec 13 11:32:00 2021.
