 Gaussian 16, Revision A.03,
 Gaussian 16:  EM64L-G16RevA.03 25-Dec-2016

 ---------------------------------------
 # hf/sto-3g geom=connectivity scf=tight
 ---------------------------------------

 -------------------
 Title Card Required
 -------------------
 Symbolic Z-matrix:
 Charge =  0 Multiplicity = 1

                         Standard orientation:
 ---------------------------------------------------------------------
 Center     Atomic      Atomic             Coordinates (Angstroms)
 Number     Number       Type             X           Y           Z
 ---------------------------------------------------------------------
      1          6           0       -0.714929    2.120895   -2.764375
      2          6           0       -1.704806    2.563811   -1.781044
      3          6           0       -1.297207    3.247897   -0.648246
      4          6           0        0.123547    3.528173   -0.433981
      5          6           0        1.059830    3.109235   -1.364127
      6          6           0        0.628925    2.386026   -2.561742
      7          6           0       -1.134676    0.813333   -3.271419
      8          6           0       -2.383933    0.448100   -2.601431
      9          6           0       -2.736314    1.529970   -1.680296
     10          6           0       -3.304405    1.236113   -0.452206
     11          6           0       -1.897806    2.937205    0.650105
     12          6           0        0.400995    3.390714    0.996790
     13          6           0        1.599732    2.841798    1.419970
     14          6           0        2.589590    2.398919    0.436597
     15          6           0        2.327137    2.528926   -0.916742
     16          6           0        2.679479    1.447084   -1.837872
     17          6           0        1.629932    1.358771   -2.854536
     18          6           0        1.232914    0.121973   -3.334139
     19          6           0       -0.187848   -0.158330   -3.548377
     20          6           0       -2.618760   -0.869036   -2.244630
     21          6           0       -1.617784   -1.896281   -2.537406
     22          6           0       -0.436116   -1.550810   -3.171146
     23          6           0        0.831198   -2.131126   -2.723761
     24          6           0        1.862707   -1.097278   -2.824499
     25          6           0        2.855458   -1.013753   -1.862839
     26          6           0        3.275205    0.293810   -1.355814
     27          6           0        3.552683    0.156379    0.074972
     28          6           0        3.219416    1.179661    0.946260
     29          6           0       -0.848244    3.025492    1.666797
     30          6           0        1.134649   -0.813343    3.271431
     31          6           0        0.187831    0.158313    3.548403
     32          6           0       -1.232912   -0.121974    3.334144
     33          6           0       -1.629929   -1.358788    2.854558
     34          6           0       -0.628943   -2.386036    2.561789
     35          6           0        1.704776   -2.563800    1.781042
     36          6           0        2.736289   -1.529953    1.680306
     37          6           0        2.383953   -0.448115    2.601423
     38          6           0        2.618785    0.869014    2.244604
     39          6           0        1.617757    1.896289    2.537366
     40          6           0        0.436096    1.550824    3.171129
     41          6           0       -1.862694    1.097267    2.824476
     42          6           0       -2.855430    1.013765    1.862830
     43          6           0       -3.275182   -0.293805    1.355768
     44          6           0       -2.679467   -1.447083    1.837856
     45          6           0       -2.327144   -2.528918    0.916762
     46          6           0       -1.059846   -3.109221    1.364143
     47          6           0       -0.123555   -3.528127    0.433989
     48          6           0        1.297196   -3.247844    0.648237
     49          6           0        3.304405   -1.236111    0.452202
     50          6           0        2.873492   -1.959292   -0.745420
     51          6           0        1.897811   -2.937186   -0.650132
     52          6           0        0.848259   -3.025493   -1.666822
     53          6           0       -0.401018   -3.390723   -0.996781
     54          6           0       -1.599743   -2.841834   -1.419957
     55          6           0       -2.589603   -2.398934   -0.436592
     56          6           0       -3.219383   -1.179702   -0.946225
     57          6           0       -3.552642   -0.156399   -0.074956
     58          6           0       -0.831171    2.131118    2.723743
     59          6           0       -2.873477    1.959311    0.745397
     60          6           0        0.714918   -2.120889    2.764423
 ---------------------------------------------------------------------

 SCF Done:  E(RHF) =  -2244.21877160     A.U. after   11 cycles

 The electronic state is 1-A.
 Alpha  occ. eigenvalues --  -11.05481 -11.05481 -11.05481 -11.05481 -11.05481
 Alpha  occ. eigenvalues --  -11.05479 -11.05479 -11.05479 -11.05479 -11.05479
 Alpha  occ. eigenvalues --  -11.05477 -11.05477 -11.05477 -11.05477 -11.05471
 Alpha  occ. eigenvalues --  -11.05471 -11.05471 -11.05468 -11.05468 -11.05468
 Alpha  occ. eigenvalues --  -11.05468 -11.05457 -11.05457 -11.05457 -11.05457
 Alpha  occ. eigenvalues --  -11.05457 -11.05446 -11.05446 -11.05446 -11.05438
 Alpha  occ. eigenvalues --  -11.05438 -11.05438 -11.05437 -11.05437 -11.05437
 Alpha  occ. eigenvalues --  -11.05437 -11.05437 -11.05436 -11.05436 -11.05436
 Alpha  occ. eigenvalues --  -11.05436 -11.05434 -11.05434 -11.05434 -11.05434
 Alpha  occ. eigenvalues --  -11.05434 -11.05434 -11.05434 -11.05431 -11.05428
 Alpha  occ. eigenvalues --  -11.05428 -11.05428 -11.05425 -11.05425 -11.05425
 Alpha  occ. eigenvalues --  -11.05425 -11.05425 -11.05424 -11.05424 -11.05424
 Alpha  occ. eigenvalues --   -1.20973  -1.18446  -1.18446  -1.18446  -1.13554
 Alpha  occ. eigenvalues --   -1.13554  -1.13554  -1.13554  -1.13554  -1.07941
 Alpha  occ. eigenvalues --   -1.07941  -1.07941  -1.05011  -1.05011  -1.05011
 Alpha  occ. eigenvalues --   -1.05010  -0.97866  -0.97866  -0.97866  -0.97865
 Alpha  occ. eigenvalues --   -0.97865  -0.96466  -0.96466  -0.96466  -0.96466
 Alpha  occ. eigenvalues --   -0.89398  -0.89398  -0.89398  -0.89398  -0.89398
 Alpha  occ. eigenvalues --   -0.85824  -0.85824  -0.85824  -0.80668  -0.80667
 Alpha  occ. eigenvalues --   -0.80667  -0.76540  -0.76540  -0.76540  -0.76539
 Alpha  occ. eigenvalues --   -0.76539  -0.75801  -0.75801  -0.75801  -0.70949
 Alpha  occ. eigenvalues --   -0.66586  -0.66585  -0.66585  -0.66585  -0.64105
 Alpha  occ. eigenvalues --   -0.64105  -0.64105  -0.64105  -0.64105  -0.61124
 Alpha  occ. eigenvalues --   -0.61123  -0.61123  -0.58183  -0.58183  -0.58183
 Alpha  occ. eigenvalues --   -0.57745  -0.54698  -0.54698  -0.54698  -0.54698
 Alpha  occ. eigenvalues --   -0.54542  -0.54542  -0.54542  -0.52461  -0.52461
 Alpha  occ. eigenvalues --   -0.52461  -0.52461  -0.52461  -0.51009  -0.51009
 Alpha  occ. eigenvalues --   -0.51009  -0.51009  -0.49054  -0.49054  -0.49054
 Alpha  occ. eigenvalues --   -0.48172  -0.48172  -0.48172  -0.48172  -0.48172
 Alpha  occ. eigenvalues --   -0.47019  -0.47019  -0.47019  -0.47019  -0.40891
 Alpha  occ. eigenvalues --   -0.40891  -0.40891  -0.40891  -0.40891  -0.39581
 Alpha  occ. eigenvalues --   -0.39581  -0.39581  -0.39581  -0.39581  -0.39289
 Alpha  occ. eigenvalues --   -0.39289  -0.39289  -0.38114  -0.38114  -0.38114
 Alpha  occ. eigenvalues --   -0.38114  -0.28035  -0.28035  -0.28035  -0.28034
 Alpha  occ. eigenvalues --   -0.26457  -0.26457  -0.26457  -0.26457  -0.26457
 Alpha  occ. eigenvalues --   -0.20415  -0.20415  -0.20415  -0.20415  -0.20415
 Alpha virt. eigenvalues --    0.10869   0.10869   0.10869   0.16722   0.16723
 Alpha virt. eigenvalues --    0.16723   0.23638   0.23638   0.23639   0.23639
 Alpha virt. eigenvalues --    0.23639   0.24455   0.24455   0.24455   0.32366

 Mulliken charges:
               1
     1  C    0.000004
     2  C   -0.000001
     3  C   -0.000001
     4  C   -0.000001
     5  C    0.000002
     6  C   -0.000001
     7  C   -0.000003
     8  C    0.000001
     9  C    0.000002
    10  C    0.000001
    11  C    0.000001
    12  C    0.000000
    13  C   -0.000004
    14  C    0.000005
    15  C   -0.000002
    16  C    0.000001
    17  C   -0.000000
    18  C    0.000000
    19  C   -0.000001
    20  C   -0.000001
    21  C   -0.000004
    22  C    0.000001
    23  C   -0.000000
    24  C   -0.000001
    25  C   -0.000000
    26  C   -0.000000
    27  C    0.000003
    28  C   -0.000004
    29  C   -0.000001
    30  C    0.000002
    31  C   -0.000001
    32  C   -0.000001
    33  C   -0.000001
    34  C   -0.000002
    35  C    0.000001
    36  C    0.000001
    37  C   -0.000000
    38  C    0.000002
    39  C   -0.000000
    40  C    0.000000
    41  C   -0.000000
    42  C    0.000002
    43  C   -0.000001
    44  C    0.000000
    45  C   -0.000001
    46  C   -0.000000
    47  C    0.000003
    48  C   -0.000000
    49  C   -0.000002
    50  C   -0.000000
    51  C    0.000001
    52  C    0.000003
    53  C   -0.000003
    54  C    0.000005
    55  C   -0.000004
    56  C    0.000005
    57  C   -0.000002
    58  C   -0.000001
    59  C   -0.000001
    60  C    0.000000
 Sum of Mulliken charges =  -0.00000

 Dipole moment (field-independent basis, Debye):
    X=              0.0001    Y=             -0.0000    Z=             -0.0000  Tot=              0.0001
 Quadrupole moment (field-independent basis, Debye-Ang):
   XX=           -300.2536   YY=           -300.2540   ZZ=           -300.2543
   XY=             -0.0002   XZ=              0.0002   YZ=             -0.0002

 Normal termination of Gaussian 16 at Mon Dec 13 16:47:20 2021.
