 Gaussian 16, Revision A.03,
 Gaussian 16:  EM64L-G16RevA.03 25-Dec-2016

 ------------------------
 #T RHF/6-31G(d) Opt Test
 ------------------------
 ------------------------------
 Ethylene Geometry Optimization
 ------------------------------
 Symbolic Z-matrix:
 Charge =  0 Multiplicity = 1

 SCF Done:  E(RHF) =  -78.0127863384     A.U. after    9 cycles
 SCF Done:  E(RHF) =  -78.0316151676     A.U. after    9 cycles
 SCF Done:  E(RHF) =  -78.0317122538     A.U. after    7 cycles
 SCF Done:  E(RHF) =  -78.0317181516     A.U. after    7 cycles
 Optimization completed.
    -- Stationary point found.

                         Standard orientation:
 ---------------------------------------------------------------------
 Center     Atomic      Atomic             Coordinates (Angstroms)
 Number     Number       Type             X           Y           Z
 ---------------------------------------------------------------------
      1          6           0        0.000000   -0.000000    0.658450
      2          6           0        0.000000   -0.000000   -0.658450
      3          1           0       -0.000000    0.914360    1.225664
      4          1           0       -0.000000   -0.914360    1.225664
      5          1           0       -0.000000   -0.914360   -1.225664
      6          1           0        0.000000    0.914360   -1.225664
 ---------------------------------------------------------------------

 The electronic state is 1-AG.
 Alpha  occ. eigenvalues --  -11.22431 -11.22251  -1.03317  -0.78957  -0.64068
 Alpha  occ. eigenvalues --   -0.58652  -0.50195  -0.37439
 Alpha virt. eigenvalues --    0.18392   0.26680   0.29314   0.31114   0.39305
 Alpha virt. eigenvalues --    0.49570   0.66183   0.76798   0.77264   0.85238
 Alpha virt. eigenvalues --    0.89376   0.96627   1.10998   1.16371   1.21220

 Mulliken charges:
               1
     1  C   -0.352729
     2  C   -0.352729
     3  H    0.176364
     4  H    0.176364
     5  H    0.176364
     6  H    0.176364
 Sum of Mulliken charges =   0.00000

 Dipole moment (field-independent basis, Debye):
    X=             -0.0000    Y=              0.0000    Z=              0.0000  Tot=              0.0000
 B after Tr=    -0.000000    0.000000    0.000000
         Rot=    1.000000   -0.000000   -0.000000    0.000000 Ang=   0.00 deg.
 Final structure in terms of initial Z-matrix:
 C
 C,1,CC
 H,1,CH,2,HCC
 H,1,CH,2,HCC,3,180.,0
 H,2,CH,1,HCC,3,180.,0
 H,2,CH,1,HCC,4,180.,0
      Variables:

 Normal termination of Gaussian 16 at Thu Nov 11 11:55:43 2021.
