 Gaussian 16, Revision A.03,
 Gaussian 16:  EM64L-G16RevA.03 25-Dec-2016

 ------------------------
 #T UHF/STO-3G nosymm opt
 ------------------------
 -----------------------
 H3CO --> H2COH Products
 -----------------------
 Symbolic Z-matrix:
 Charge =  0 Multiplicity = 2

 SCF Done:  E(UHF) =  -112.896177640     A.U. after   15 cycles
 SCF Done:  E(UHF) =  -112.909383560     A.U. after   14 cycles
 SCF Done:  E(UHF) =  -112.910840047     A.U. after   13 cycles
 SCF Done:  E(UHF) =  -112.911762526     A.U. after   13 cycles
 SCF Done:  E(UHF) =  -112.913300270     A.U. after   15 cycles
 SCF Done:  E(UHF) =  -112.914525170     A.U. after   15 cycles
 SCF Done:  E(UHF) =  -112.915102852     A.U. after   12 cycles
 SCF Done:  E(UHF) =  -112.915944507     A.U. after   14 cycles
 SCF Done:  E(UHF) =  -112.916065772     A.U. after   12 cycles
 SCF Done:  E(UHF) =  -112.916106189     A.U. after   12 cycles
 SCF Done:  E(UHF) =  -112.916109485     A.U. after   12 cycles
 SCF Done:  E(UHF) =  -112.916111140     A.U. after   11 cycles
 Optimization completed.
    -- Stationary point found.

 Alpha  occ. eigenvalues --  -20.28983 -11.04983  -1.30603  -0.86192  -0.62663
 Alpha  occ. eigenvalues --   -0.53513  -0.52114  -0.42473  -0.28501
 Alpha virt. eigenvalues --    0.57012   0.64671   0.70191   0.77627
  Beta  occ. eigenvalues --  -20.28726 -11.02089  -1.28826  -0.78325  -0.61150
  Beta  occ. eigenvalues --   -0.52296  -0.43531  -0.39712
  Beta virt. eigenvalues --    0.32683   0.58528   0.68854   0.73535   0.80814

 Mulliken charges and spin densities:
               1          2
     1  O   -0.276348   0.048871
     2  C   -0.014669   1.090433
     3  H    0.191758  -0.004211
     4  H    0.043468  -0.063474
     5  H    0.055791  -0.071619
 Sum of Mulliken charges =  -0.00000   1.00000

 Dipole moment (field-independent basis, Debye):
    X=              1.3098    Y=             -0.3215    Z=             -0.2548  Tot=              1.3726
                          Isotropic Fermi Contact Couplings
        Atom                 a.u.       MegaHertz       Gauss      10(-4) cm-1
     1  O(17)              0.02286     -13.85478      -4.94373      -4.62146
     2  C(13)              0.29984     337.08228     120.27934     112.43854
     3  H(1)              -0.00076      -3.37665      -1.20487      -1.12633
     4  H(1)              -0.02012     -89.94790     -32.09565     -30.00339
     5  H(1)              -0.02422    -108.26136     -38.63034     -36.11210
 --------------------------------------------------------
       Center         ----  Spin Dipole Couplings  ----
                      3XX-RR        3YY-RR        3ZZ-RR

 Normal termination of Gaussian 16 at Wed Nov 17 09:54:34 2021.
