 Gaussian 16, Revision A.03,
 Gaussian 16:  EM64L-G16RevA.03 25-Dec-2016

 -----------------------
 # opt uhf/sto-3g nosymm
 -----------------------

 ----------------------------------
 stable resonance structure H3CN=-N
 ----------------------------------
 Symbolic Z-matrix:
 Charge =  0 Multiplicity = 2

 SCF Done:  E(UHF) =  -146.528723031     A.U. after   17 cycles
 SCF Done:  E(UHF) =  -146.585235215     A.U. after   19 cycles
 SCF Done:  E(UHF) =  -146.562970981     A.U. after   19 cycles
 SCF Done:  E(UHF) =  -146.602564647     A.U. after   16 cycles
 SCF Done:  E(UHF) =  -146.603385947     A.U. after   14 cycles
 SCF Done:  E(UHF) =  -146.604039551     A.U. after   14 cycles
 SCF Done:  E(UHF) =  -146.604055742     A.U. after   11 cycles
 Optimization completed.
    -- Stationary point found.

                          Input orientation:
 ---------------------------------------------------------------------
 Center     Atomic      Atomic             Coordinates (Angstroms)
 Number     Number       Type             X           Y           Z
 ---------------------------------------------------------------------
      1          7           0        0.933399    0.353915   -0.211114
      2          7           0       -0.415734    0.490785   -0.208734
      3          6           0       -1.067021   -0.882362   -0.256447
      4          1           0       -0.773257   -1.469691    0.613554
      5          1           0       -2.145826   -0.743486   -0.253546
      6          1           0       -0.770268   -1.409369   -1.163285
 ---------------------------------------------------------------------

 Alpha  occ. eigenvalues --  -15.40089 -15.38062 -11.10314  -1.25688  -0.98010
 Alpha  occ. eigenvalues --   -0.75977  -0.59816  -0.57862  -0.55484  -0.48322
 Alpha  occ. eigenvalues --   -0.46165  -0.32953
 Alpha virt. eigenvalues --    0.29254   0.57653   0.63576   0.68872   0.70652
 Alpha virt. eigenvalues --    0.73993
  Beta  occ. eigenvalues --  -15.40525 -15.35596 -11.09669  -1.23194  -0.92356
  Beta  occ. eigenvalues --   -0.71578  -0.60365  -0.56929  -0.48492  -0.44341
  Beta  occ. eigenvalues --   -0.40057
  Beta virt. eigenvalues --    0.31153   0.32849   0.57177   0.65550   0.68322
  Beta virt. eigenvalues --    0.70724   0.76005

 Mulliken charges and spin densities:
               1          2
     1  N   -0.012248   1.916669
     2  N   -0.119134  -1.050853
     3  C   -0.125098   0.214968
     4  H    0.084471  -0.034129
     5  H    0.087539  -0.012527
     6  H    0.084471  -0.034129
 Sum of Mulliken charges =  -0.00000   1.00000

 Dipole moment (field-independent basis, Debye):
    X=             -0.8899    Y=             -1.6349    Z=             -0.0570  Tot=              1.8622
 Quadrupole moment (field-independent basis, Debye-Ang):
   XX=            -17.9211   YY=            -16.9325   ZZ=            -15.8966
   XY=              1.1896   XZ=              0.2370   YZ=              0.3350

 Normal termination of Gaussian 16 at Wed Nov 17 11:00:25 2021.
