 Gaussian 16, Revision A.03,
 Gaussian 16:  EM64L-G16RevA.03 25-Dec-2016

 ------------------------
 #T UHF/STO-3G opt nosymm
 ------------------------
 ------------------------
 H3CO --> H2COH Reactants
 ------------------------
 Symbolic Z-matrix:
 Charge =  0 Multiplicity = 2

 SCF Done:  E(UHF) =  -112.958848175     A.U. after   35 cycles
 SCF Done:  E(UHF) =  -112.960593544     A.U. after   21 cycles
 SCF Done:  E(UHF) =  -112.960857746     A.U. after   23 cycles
 SCF Done:  E(UHF) =  -112.960873420     A.U. after   28 cycles
 SCF Done:  E(UHF) =  -112.960879127     A.U. after   30 cycles
 SCF Done:  E(UHF) =  -112.960883861     A.U. after   22 cycles
 SCF Done:  E(UHF) =  -112.960886422     A.U. after   20 cycles
 SCF Done:  E(UHF) =  -112.960886673     A.U. after   18 cycles
 Optimization completed.
    -- Stationary point found.

 Alpha  occ. eigenvalues --  -20.29280 -11.08940  -1.29959  -0.87525  -0.61384
 Alpha  occ. eigenvalues --   -0.58243  -0.50034  -0.45385  -0.38698
 Alpha virt. eigenvalues --    0.58896   0.68511   0.69404   0.71585
  Beta  occ. eigenvalues --  -20.26436 -11.09305  -1.15811  -0.84966  -0.57523
  Beta  occ. eigenvalues --   -0.55417  -0.45995  -0.34245
  Beta virt. eigenvalues --    0.34709   0.62115   0.69232   0.70268   0.72274

 Mulliken charges and spin densities:
               1          2
     1  C   -0.105221  -0.136964
     2  H    0.079561   0.048266
     3  H    0.066995   0.015491
     4  H    0.066860   0.015146
     5  O   -0.108194   1.058061
 Sum of Mulliken charges =  -0.00000   1.00000

 Dipole moment (field-independent basis, Debye):
    X=             -0.4001    Y=             -0.6403    Z=             -1.0238  Tot=              1.2721
                          Isotropic Fermi Contact Couplings
        Atom                 a.u.       MegaHertz       Gauss      10(-4) cm-1
     1  C(13)             -0.05122     -57.58497     -20.54775     -19.20828
     2  H(1)               0.02204      98.52905      35.15761      32.86575
     3  H(1)               0.00631      28.20480      10.06417       9.40811
     4  H(1)               0.00615      27.47097       9.80232       9.16333
     5  O(17)              0.07645     -46.34256     -16.53618     -15.45821
 --------------------------------------------------------
       Center         ----  Spin Dipole Couplings  ----
                      3XX-RR        3YY-RR        3ZZ-RR

 Normal termination of Gaussian 16 at Wed Nov 17 09:57:01 2021.
