 Gaussian 16, Revision A.03,
 Gaussian 16:  EM64L-G16RevA.03 25-Dec-2016

 ------------------------------------------------
 # uhf/sto-3g output=matrix scf=conven int=noraff
 ------------------------------------------------

 -------
 Benzene
 -------
 Symbolic Z-matrix:
 Charge =  0 Multiplicity = 1

                         Standard orientation:
 ---------------------------------------------------------------------
 Center     Atomic      Atomic             Coordinates (Angstroms)
 Number     Number       Type             X           Y           Z
 ---------------------------------------------------------------------
      1          6           0       -0.176732   -1.383750    0.000005
      2          6           0        1.110097   -0.844730   -0.000364
      3          6           0        1.286859    0.538735    0.000194
      4          6           0        0.176468    1.383868   -0.000075
      5          6           0       -1.110022    0.844906   -0.000185
      6          6           0       -1.286665   -0.539004    0.000252
      7          1           0       -0.315876   -2.474521    0.000015
      8          1           0        1.984941   -1.510981    0.000218
      9          1           0        2.301120    0.963670    0.000537
     10          1           0        0.316086    2.474649    0.000306
     11          1           0       -1.985342    1.510705   -0.000405
     12          1           0       -2.300958   -0.963667    0.000364
 ---------------------------------------------------------------------

 SCF Done:  E(UHF) =  -227.889409905     A.U. after   10 cycles

 The electronic state is 1-A.
 Alpha  occ. eigenvalues --  -11.02930 -11.02930 -11.02927 -11.02894 -11.02894
 Alpha  occ. eigenvalues --  -11.02880  -1.08912  -0.95262  -0.95257  -0.76318
 Alpha  occ. eigenvalues --   -0.76312  -0.65724  -0.58760  -0.55243  -0.53041
 Alpha  occ. eigenvalues --   -0.53039  -0.45572  -0.42996  -0.42987  -0.27941
 Alpha  occ. eigenvalues --   -0.27934
 Alpha virt. eigenvalues --    0.26925   0.26934   0.50428   0.56473   0.63647
 Alpha virt. eigenvalues --    0.63660   0.70674   0.72600   0.72607   0.87495
 Alpha virt. eigenvalues --    0.87504   0.89400   0.89417   1.08778   1.14437
  Beta  occ. eigenvalues --  -11.02930 -11.02930 -11.02927 -11.02894 -11.02894
  Beta  occ. eigenvalues --  -11.02880  -1.08912  -0.95262  -0.95257  -0.76318
  Beta  occ. eigenvalues --   -0.76312  -0.65724  -0.58760  -0.55243  -0.53041
  Beta  occ. eigenvalues --   -0.53039  -0.45572  -0.42996  -0.42987  -0.27941
  Beta  occ. eigenvalues --   -0.27934
  Beta virt. eigenvalues --    0.26925   0.26934   0.50428   0.56473   0.63647
  Beta virt. eigenvalues --    0.63660   0.70674   0.72600   0.72607   0.87495
  Beta virt. eigenvalues --    0.87504   0.89400   0.89417   1.08778   1.14437

 Mulliken charges and spin densities:
               1          2
     1  C   -0.060397   0.000000
     2  C   -0.060416   0.000000
     3  C   -0.060381   0.000000
     4  C   -0.060370   0.000000
     5  C   -0.060389   0.000000
     6  C   -0.060408   0.000000
     7  H    0.060403   0.000000
     8  H    0.060388   0.000000
     9  H    0.060396   0.000000
    10  H    0.060394   0.000000
    11  H    0.060378   0.000000
    12  H    0.060403   0.000000
 Sum of Mulliken charges =  -0.00000   0.00000

 Dipole moment (field-independent basis, Debye):
    X=              0.0000    Y=              0.0001    Z=              0.0004  Tot=              0.0004
 Quadrupole moment (field-independent basis, Debye-Ang):
   XX=            -31.1580   YY=            -31.1582   ZZ=            -35.1303
   XY=              0.0007   XZ=              0.0010   YZ=             -0.0000

 Normal termination of Gaussian 16 at Tue Dec  7 12:14:07 2021.
