 Gaussian 16, Revision A.03,
 Gaussian 16:  EM64L-G16RevA.03 25-Dec-2016

 -----------------------
 # uhf/6-31g stable test
 -----------------------

 --------------------------
 SCF Stability Calculations
 --------------------------
 Symbolic Z-matrix:
 Charge =  0 Multiplicity = 3

                         Standard orientation:
 ---------------------------------------------------------------------
 Center     Atomic      Atomic             Coordinates (Angstroms)
 Number     Number       Type             X           Y           Z
 ---------------------------------------------------------------------
      1          8           0        0.000000    0.000000    0.580800
      2          8           0        0.000000    0.000000   -0.580800
 ---------------------------------------------------------------------

 SCF Done:  E(UHF) =  -149.543810581     A.U. after   10 cycles

 The electronic state is 3-SGG.
 Alpha  occ. eigenvalues --  -20.76388 -20.76325  -1.80529  -1.18699  -0.87356
 Alpha  occ. eigenvalues --   -0.87356  -0.76877  -0.55329  -0.55329
 Alpha virt. eigenvalues --    0.45821   1.01543   1.01543   1.10470   1.10685
 Alpha virt. eigenvalues --    1.12928   1.12928   1.19351   1.69257
  Beta  occ. eigenvalues --  -20.70886 -20.70751  -1.66660  -0.98047  -0.70243
  Beta  occ. eigenvalues --   -0.60363  -0.60363
  Beta virt. eigenvalues --    0.11223   0.11223   0.53646   1.13622   1.13622
  Beta virt. eigenvalues --    1.13629   1.14123   1.21701   1.25408   1.25408
  Beta virt. eigenvalues --    1.74191

 Mulliken charges and spin densities:
               1          2
     1  O    0.000000   1.000000
     2  O    0.000000   1.000000
 Sum of Mulliken charges =   0.00000   2.00000

 Dipole moment (field-independent basis, Debye):
    X=              0.0000    Y=             -0.0000    Z=              0.0000  Tot=              0.0000
 Quadrupole moment (field-independent basis, Debye-Ang):
   XX=             -9.8840   YY=             -9.8840   ZZ=            -11.2547
   XY=              0.0000   XZ=              0.0000   YZ=              0.0000

 Normal termination of Gaussian 16 at Mon Dec 13 17:54:06 2021.
