 Gaussian 16, Revision A.03,
 Gaussian 16:  EM64L-G16RevA.03 25-Dec-2016

 -----------------------
 # rhf/6-31g stable test
 -----------------------

 --------------------------
 SCF Stability Calculations
 --------------------------
 Symbolic Z-matrix:
 Charge =  0 Multiplicity = 1

                         Standard orientation:
 ---------------------------------------------------------------------
 Center     Atomic      Atomic             Coordinates (Angstroms)
 Number     Number       Type             X           Y           Z
 ---------------------------------------------------------------------
      1          8           0        0.000000    0.000000    0.580800
      2          8           0        0.000000    0.000000   -0.580800
 ---------------------------------------------------------------------

 SCF Done:  E(RHF) =  -149.459894757     A.U. after    8 cycles

 Unable to determine electronic state:  an orbital has unidentified symmetry.
 Alpha  occ. eigenvalues --  -20.74967 -20.74864  -1.74226  -1.08778  -0.80121
 Alpha  occ. eigenvalues --   -0.74131  -0.67951  -0.46972
 Alpha virt. eigenvalues --    0.03051   0.49181   1.05801   1.08123   1.11753
 Alpha virt. eigenvalues --    1.11970   1.16898   1.19999   1.20169   1.71335

 Mulliken charges:
               1
     1  O    0.000000
     2  O    0.000000
 Sum of Mulliken charges =   0.00000

 Dipole moment (field-independent basis, Debye):
    X=              0.0000    Y=             -0.0000    Z=              0.0000  Tot=              0.0000
 Quadrupole moment (field-independent basis, Debye-Ang):
   XX=             -9.1321   YY=            -10.7244   ZZ=            -11.3051
   XY=              0.0000   XZ=              0.0000   YZ=              0.0000

 Normal termination of Gaussian 16 at Mon Dec 13 16:39:39 2021.
